# t (s)	mx ()	my ()	mz ()	B_extx (T)	B_exty (T)	B_extz (T)
0	7.4505806e-08	-4.1405146e-06	-0.017184034	0	0	0
0	0.024703726	-2.1006272e-06	-0.01718645	0.001	0	0
0	0.049426377	-1.0922668e-06	-0.017193723	0.002	0	0
0	0.07403864	-5.857437e-07	-0.01720563	0.0030000003	0	0
0	0.0985779	-3.259629e-07	-0.017223736	0.004	0	0
0	0.122981176	-1.6909325e-07	-0.017247077	0.0049999994	0	0
0	0.14715877	-8.632196e-08	-0.017277729	0.0060000005	0	0
0	0.17118971	-4.345202e-08	-0.01731607	0.0069999998	0	0
0	0.1949487	-2.264278e-08	-0.017363288	0.008	0	0
0	0.21841367	-1.4115358e-08	-0.01742084	0.009	0	0
0	0.24162632	-1.0652002e-08	-0.017491104	0.009999999	0	0
0	0.26450655	-7.246854e-09	-0.017574891	0.011	0	0
0	0.28709897	-7.82893e-09	-0.017676461	0.012000001	0	0
0	0.3094618	-1.207809e-08	-0.017798409	0.012999998	0	0
0	0.3317232	-1.3562385e-08	-0.017946271	0.0139999995	0	0
0	0.35400409	-1.0652002e-08	-0.018127525	0.015	0	0
0	0.37693578	-1.2514647e-08	-0.018358337	0.016	0	0
0	0.40144652	-1.4202669e-08	-0.018670134	0.017000003	0	0
0	0.43311706	-1.603621e-08	-0.019223165	0.018	0	0
0	0.97029084	-5.326001e-09	-7.7719783e-16	0.019	0	0
0	0.97078234	-6.46196e-09	1.2122073e-23	0.019999998	0	0
0	0.9712679	-6.9703674e-09	7.816485e-31	0.021	0	0
0	0.97174746	-3.812602e-09	1.0636997e-35	0.022	0	0
0	0.9722217	-5.47152e-09	0	0.023	0	0
0	0.9726901	-3.8889993e-09	0	0.024000002	0	0
0	0.9731532	-1.7280399e-09	0	0.025000002	0	0
0	0.9736109	-2.579327e-09	0	0.025999997	0	0
0	0.9740634	-3.805326e-09	0	0.026999999	0	0
0	0.97451127	-2.1100277e-09	0	0.027999999	0	0
0	0.974954	-4.307367e-09	0	0.029	0	0
0	0.9753921	-3.5433914e-09	0	0.03	0	0
0	0.9758254	-1.8626451e-09	0	0.031000001	0	0
0	0.97625434	-4.329195e-09	0	0.032	0	0
0	0.97667897	-1.2951205e-09	0	0.032999996	0	0
0	0.9770993	-3.274181e-10	0	0.034000006	0	0
0	0.9775156	3.783498e-10	0	0.035	0	0
0	0.9779277	-3.0122465e-09	0	0.036	0	0
0	0.978336	-1.7826096e-09	0	0.037	0	0
0	0.9787406	-3.3614924e-09	0	0.038	0	0
0	0.9791415	-2.4665496e-09	0	0.039	0	0
0	0.9795388	-3.8780854e-09	0	0.039999995	0	0
0	0.97993237	-2.059096e-09	0	0.041000005	0	0
0	0.9803228	-9.094947e-11	0	0.042	0	0
0	0.9807104	-1.1350494e-09	0	0.043000005	0	0
0	0.9810942	1.4333636e-09	0	0.044	0	0
0	0.9814752	2.0845619e-09	0	0.045	0	0
0	0.98185337	1.5224941e-09	0	0.046	0	0
0	0.982229	-5.125912e-09	0	0.046999995	0	0
0	0.9826013	6.366463e-10	0	0.048000004	0	0
0	0.98297113	3.6743586e-10	0	0.049	0	0
0	0.9833385	1.1714292e-09	0	0.050000004	0	0
0	0.98370373	3.958121e-09	0	0.051	0	0
0	0.98406655	5.1040843e-09	0	0.051999994	0	0
0	0.98442733	-1.4915713e-09	0	0.053	0	0
0	0.9847861	1.3460522e-09	0	0.053999998	0	0
0	0.98514235	7.4360287e-09	0	0.055000003	0	0
0	0.9854974	2.0372681e-09	0	0.055999998	0	0
0	0.98585063	3.8489816e-09	0	0.057000004	0	0
0	0.9862027	4.8530637e-09	0	0.058	0	0
0	0.9865533	5.638867e-09	0	0.059000008	0	0
0	0.9869018	5.686161e-09	0	0.06	0	0
0	0.98725	6.1008905e-09	0	0.060999997	0	0
0	0.98759705	5.293259e-10	0	0.062000003	0	0
0	0.9879428	4.704816e-09	0	0.063	0	0
0	0.98828876	4.292815e-10	0	0.064	0	0
0	0.98863375	-2.5465852e-10	0	0.065	0	0
0	0.98897904	-2.044544e-09	0	0.06599999	0	0
0	0.98932385	-1.2812961e-08	0	0.067	0	0
0	0.9896689	-3.111927e-08	0	0.06800001	0	0
0	0.99001354	-8.89213e-08	0	0.069	0	0
0	0.9903426	-5.4919656e-07	0	0.07	0	0
0	0.9904432	-3.1844684e-07	0	0.071	0	0
0	0.9905219	-2.5428017e-07	0	0.072	0	0
0	0.99059975	-2.0820153e-07	0	0.07300001	0	0
0	0.9906769	-1.8616993e-07	0	0.074	0	0
0	0.9907533	-1.5416299e-07	0	0.074999996	0	0
0	0.99082917	-1.371809e-07	0	0.076	0	0
0	0.9909042	-1.2071541e-07	0	0.077	0	0
0	0.9909786	-1.1023076e-07	0	0.078	0	0
0	0.9910524	-9.291398e-08	0	0.079	0	0
0	0.99112546	-8.6802174e-08	0	0.07999999	0	0
0	0.99119776	-8.047937e-08	0	0.081	0	0
0	0.9912696	-7.17846e-08	0	0.08200001	0	0
0	0.99134064	-6.6604116e-08	0	0.083	0	0
0	0.99141103	-5.985203e-08	0	0.084	0	0
0	0.9914808	-5.5551936e-08	0	0.08499999	0	0
0	0.99155	-5.0713425e-08	0	0.08600001	0	0
0	0.9916185	-4.612957e-08	0	0.087000005	0	0
0	0.9916864	-4.0148734e-08	0	0.088	0	0
0	0.9917537	-3.5739504e-08	0	0.088999994	0	0
0	0.99182045	-3.635796e-08	0	0.09	0	0
0	0.9918865	-2.9976945e-08	0	0.091000006	0	0
0	0.991952	-3.3505785e-08	0	0.092	0	0
0	0.9920168	-2.7248461e-08	0	0.093	0	0
0	0.9920812	-2.4781912e-08	0	0.09399999	0	0
0	0.99214476	-2.3035682e-08	0	0.095	0	0
0	0.992208	-2.017623e-08	0	0.09600001	0	0
0	0.9922705	-1.792796e-08	0	0.097	0	0
0	0.99233246	-1.9856088e-08	0	0.098	0	0
0	0.9923939	-1.5512342e-08	0	0.09899999	0	0
0	0.99245477	-1.2907549e-08	0	0.10000001	0	0
0	0.99239403	-1.3737008e-08	0	0.09899999	0	0
0	0.99233264	-1.6392733e-08	0	0.098	0	0
0	0.99227065	-1.4137186e-08	0	0.097	0	0
0	0.9922081	-1.4617399e-08	0	0.09600001	0	0
0	0.9921449	-1.4268153e-08	0	0.095	0	0
0	0.9920812	-1.5585101e-08	0	0.09399999	0	0
0	0.992017	-1.6392733e-08	0	0.093	0	0
0	0.9919521	-1.7920684e-08	0	0.092	0	0
0	0.99188656	-1.679291e-08	0	0.091000006	0	0
0	0.9918206	-1.6858394e-08	0	0.09	0	0
0	0.9917539	-1.8721039e-08	0	0.088999994	0	0
0	0.9916865	-1.5446858e-08	0	0.088	0	0
0	0.99161863	-2.0641892e-08	0	0.087000005	0	0
0	0.9915501	-2.093293e-08	0	0.08600001	0	0
0	0.99148095	-2.1151209e-08	0	0.08499999	0	0
0	0.9914111	-1.933222e-08	0	0.084	0	0
0	0.99134076	-1.9230356e-08	0	0.083	0	0
0	0.9912696	-2.41198e-08	0	0.08200001	0	0
0	0.9911978	-2.4454494e-08	0	0.081	0	0
0	0.99112546	-2.9016519e-08	0	0.07999999	0	0
0	0.9910524	-2.7714123e-08	0	0.079	0	0
0	0.9909787	-3.1832315e-08	0	0.078	0	0
0	0.9909043	-3.1257514e-08	0	0.077	0	0
0	0.99082917	-3.1941454e-08	0	0.076	0	0
0	0.9907534	-3.2661774e-08	0	0.074999996	0	0
0	0.990677	-3.5608537e-08	0	0.074	0	0
0	0.9905999	-3.999594e-08	0	0.07300001	0	0
0	0.99052197	-4.377216e-08	0	0.072	0	0
0	0.99044335	-4.7388312e-08	0	0.071	0	0
0	0.99036413	-5.2299583e-08	0	0.07	0	0
0	0.9902841	-5.2627e-08	0	0.069	0	0
0	0.9902034	-5.864422e-08	0	0.06800001	0	0
0	0.99012184	-6.3475454e-08	0	0.067	0	0
0	0.9900396	-6.8910595e-08	0	0.06599999	0	0
0	0.98995674	-7.398194e-08	0	0.065	0	0
0	0.98987293	-8.0988684e-08	0	0.064	0	0
0	0.9897885	-9.454379e-08	0	0.063	0	0
0	0.9897032	-1.06978405e-07	0	0.062000003	0	0
0	0.98961717	-1.15695e-07	0	0.060999997	0	0
0	0.9895303	-1.3259705e-07	0	0.06	0	0
0	0.98944277	-1.5077967e-07	0	0.059000008	0	0
0	0.98935425	-1.7650018e-07	0	0.058	0	0
0	0.9892651	-2.0237349e-07	0	0.057000004	0	0
0	0.989175	-2.328452e-07	0	0.055999998	0	0
0	0.98908406	-2.700981e-07	0	0.055000003	0	0
0	0.9889926	-3.103487e-07	0	0.053999998	0	0
0	0.9889	-3.712048e-07	0	0.053	0	0
0	0.9888066	-4.4185435e-07	0	0.051999994	0	0
0	0.9887123	-5.264592e-07	0	0.051	0	0
0	0.9886173	-6.3187326e-07	0	0.050000004	0	0
0	0.9885214	-7.716735e-07	0	0.049	0	0
0	0.98842454	-9.4322604e-07	0	0.048000004	0	0
0	0.9883268	-1.1560769e-06	0	0.046999995	0	0
0	0.9882282	-1.4394755e-06	0	0.046	0	0
0	0.9881287	-1.8089922e-06	0	0.045	0	0
0	0.9880282	-2.3071916e-06	0	0.044	0	0
0	0.98792696	-2.9355433e-06	0	0.043000005	0	0
0	0.98782474	-3.7810532e-06	0	0.042	0	0
0	0.97997886	0.04705658	0	0.041000005	0	0
0	0.97958577	0.04788716	0	0.039999995	0	0
0	0.97918856	0.04871084	0	0.039	0	0
0	0.97878814	0.04952555	0	0.038	0	0
0	0.9783837	0.050333574	0	0.037	0	0
0	0.97797596	0.051134095	0	0.036	0	0
0	0.97756386	0.051929273	0	0.035	0	0
0	0.97714823	0.05271812	0	0.034000006	0	0
0	0.976728	0.05350284	0	0.032999996	0	0
0	0.97630394	0.05428224	0	0.032	0	0
0	0.97587526	0.05505782	0	0.031000001	0	0
0	0.97544235	0.05582966	0	0.03	0	0
0	0.9750045	0.05659882	0	0.029	0	0
0	0.97456235	0.057364378	0	0.027999999	0	0
0	0.9741151	0.05812812	0	0.026999999	0	0
0	0.973663	0.058889583	0	0.025999997	0	0
0	0.97320557	0.0596495	0	0.025000002	0	0
0	0.9727431	0.06040786	0	0.024000002	0	0
0	0.972275	0.061166152	0	0.023	0	0
0	0.9718019	0.06192165	0	0.022	0	0
0	0.9713228	0.062677994	0	0.021	0	0
0	0.9708377	0.063434325	0	0.019999998	0	0
0	0.97034675	0.06419049	0	0.019	0	0
0	0.9698496	0.06494744	0	0.018	0	0
0	0.96934646	0.06570454	0	0.017000003	0	0
0	0.9688365	0.06646321	0	0.016	0	0
0	0.96831995	0.067222975	0	0.015	0	0
0	0.9677965	0.0679842	0	0.0139999995	0	0
0	0.96726644	0.068746954	0	0.012999998	0	0
0	0.9667288	0.06951216	0	0.012000001	0	0
0	0.9661839	0.07027924	0	0.011	0	0
0	0.9656315	0.07104912	0	0.009999999	0	0
0	0.96507096	0.07182205	0	0.009	0	0
0	0.9645028	0.0725973	0	0.008	0	0
0	0.96392626	0.07337605	0	0.0069999998	0	0
0	0.96334136	0.07415841	0	0.0060000005	0	0
0	0.96274763	0.07494436	0	0.0049999994	0	0
0	0.9621448	0.075734735	0	0.004	0	0
0	0.961533	0.07652913	0	0.0030000003	0	0
0	0.96091133	0.07732858	0	0.002	0	0
0	0.96028054	0.07813166	0	0.001	0	0
0	0.9596394	0.07894043	0	-7.632783e-17	0	0
0	0.9589881	0.07975443	0	-0.001	0	0
0	0.9583261	0.080573626	0	-0.002	0	0
0	0.9576531	0.08139921	0	-0.0030000003	0	0
0	0.95696896	0.08223055	0	-0.004	0	0
0	0.9562731	0.08306848	0	-0.0049999994	0	0
0	0.9555653	0.08391304	0	-0.0060000005	0	0
0	0.9548452	0.08476439	0	-0.0069999998	0	0
0	0.9541123	0.08562328	0	-0.008	0	0
0	0.95336634	0.0864895	0	-0.009	0	0
0	0.9526068	0.08736387	0	-0.009999999	0	0
0	0.95183355	0.08824599	0	-0.011	0	0
0	0.95104563	0.08913704	0	-0.012000001	0	0
0	0.9502429	0.09003674	0	-0.012999998	0	0
0	0.9494248	0.09094575	0	-0.0139999995	0	0
0	0.94859064	0.09186456	0	-0.015	0	0
0	0.9477401	0.09279324	0	-0.016	0	0
0	0.94687253	0.093732245	0	-0.017000003	0	0
0	0.9459873	0.09468232	0	-0.018	0	0
0	0.94508386	0.09564322	0	-0.019	0	0
0	0.9441614	0.09661636	0	-0.019999998	0	0
0	0.9432196	0.097601034	0	-0.021	0	0
0	0.9422566	0.09859969	0	-0.022	0	0
0	0.9412738	0.09960942	0	-0.023	0	0
0	0.9402685	0.10063413	0	-0.024000002	0	0
0	0.93924034	0.10167337	0	-0.025000002	0	0
0	0.9381886	0.10272634	0	-0.025999997	0	0
0	0.93711245	0.103795044	0	-0.026999999	0	0
0	0.9360105	0.104880214	0	-0.027999999	0	0
0	0.9348818	0.10598224	0	-0.029	0	0
0	0.9337253	0.10710179	0	-0.03	0	0
0	0.9325401	0.10823922	0	-0.031000001	0	0
0	0.9313241	0.10939633	0	-0.032	0	0
0	0.9300772	0.11057257	0	-0.032999996	0	0
0	0.92879695	0.111770034	0	-0.034000006	0	0
0	0.92748207	0.112989455	0	-0.035	0	0
0	0.926131	0.1142316	0	-0.036	0	0
0	0.9247426	0.115496814	0	-0.037	0	0
0	0.92331374	0.11678803	0	-0.038	0	0
0	0.9218433	0.11810536	0	-0.039	0	0
0	0.92032903	0.1194501	0	-0.039999995	0	0
0	0.91876835	0.12082416	0	-0.041000005	0	0
0	0.91715914	0.12222861	0	-0.042	0	0
0	0.9154985	0.12366534	0	-0.043000005	0	0
0	0.9137832	0.1251365	0	-0.044	0	0
0	0.9120112	0.12664278	0	-0.045	0	0
0	0.9101777	0.12818791	0	-0.046	0	0
0	0.90828013	0.12977277	0	-0.046999995	0	0
0	0.90631306	0.13140127	0	-0.048000004	0	0
0	0.90427345	0.13307497	0	-0.049	0	0
0	0.90215576	0.13479717	0	-0.050000004	0	0
0	0.89995456	0.13657138	0	-0.051	0	0
0	0.89766407	0.13840087	0	-0.051999994	0	0
0	0.8952769	0.14029074	0	-0.053	0	0
0	0.89278686	0.142244	0	-0.053999998	0	0
0	0.8901844	0.14426735	0	-0.055000003	0	0
0	0.88746166	0.14636445	0	-0.055999998	0	0
0	0.88460666	0.14854373	0	-0.057000004	0	0
0	0.88160884	0.15081054	0	-0.058	0	0
0	0.8784529	0.15317479	0	-0.059000008	0	0
0	0.8751258	0.15564385	0	-0.06	0	0
0	0.8716064	0.15823133	0	-0.060999997	0	0
0	0.86787343	0.16095215	0	-0.062000003	0	0
0	0.8639052	0.16381153	0	-0.063	0	0
0	0.85966885	0.16683668	0	-0.064	0	0
0	0.85512817	0.17004696	0	-0.065	0	0
0	0.8502388	0.17346911	0	-0.06599999	0	0
0	0.844945	0.17713621	0	-0.067	0	0
0	0.83917457	0.18109131	0	-0.06800001	0	0
0	0.8328382	0.18538602	0	-0.069	0	0
0	0.8258099	0.19009465	0	-0.07	0	0
0	0.8179124	0.19532163	0	-0.071	0	0
0	0.8088964	0.20120828	0	-0.072	0	0
0	0.79835266	0.20798966	0	-0.07300001	0	0
0	0.78557783	0.21605825	0	-0.074	0	0
0	0.7690589	0.22624396	0	-0.074999996	0	0
0	0.7437196	0.24118684	0	-0.076	0	0
0	-0.99090415	2.9181938e-05	0	-0.077	0	0
0	-0.9909786	2.3458117e-05	0	-0.078	0	0
0	-0.9910523	1.9502593e-05	0	-0.079	0	0
0	-0.9911254	1.7186765e-05	0	-0.07999999	0	0
0	-0.9911978	1.3659257e-05	0	-0.081	0	0
0	-0.99126947	1.1825876e-05	0	-0.08200001	0	0
0	-0.99134064	1.0087519e-05	0	-0.083	0	0
0	-0.991411	8.60764e-06	0	-0.084	0	0
0	-0.99148077	7.230723e-06	0	-0.08499999	0	0
0	-0.9915499	6.1024402e-06	0	-0.08600001	0	0
0	-0.9916186	5.019683e-06	0	-0.087000005	0	0
0	-0.9916864	4.2144748e-06	0	-0.088	0	0
0	-0.9917537	3.4322074e-06	0	-0.088999994	0	0
0	-0.9918204	2.7684655e-06	0	-0.09	0	0
0	-0.99188656	2.236884e-06	0	-0.091000006	0	0
0	-0.99195194	1.7638886e-06	0	-0.092	0	0
0	-0.99201685	1.3946265e-06	0	-0.093	0	0
0	-0.99208117	1.0879812e-06	0	-0.09399999	0	0
0	-0.9921448	8.476927e-07	0	-0.095	0	0
0	-0.99220794	6.561677e-07	0	-0.09600001	0	0
0	-0.9922705	5.222755e-07	0	-0.097	0	0
0	-0.99233246	3.9334554e-07	0	-0.098	0	0
0	-0.9923939	2.984816e-07	0	-0.09899999	0	0
0	-0.99245477	2.2151653e-07	0	-0.10000001	0	0
0	-0.992394	1.6500417e-07	0	-0.09899999	0	0
0	-0.99233264	1.3265526e-07	0	-0.098	0	0
0	-0.99227065	1.04475475e-07	0	-0.097	0	0
0	-0.9922081	8.629286e-08	0	-0.09600001	0	0
0	-0.99214494	7.111521e-08	0	-0.095	0	0
0	-0.9920812	5.579932e-08	0	-0.09399999	0	0
0	-0.992017	4.89963e-08	0	-0.093	0	0
0	-0.9919521	4.5642082e-08	0	-0.092	0	0
0	-0.99188656	3.9792212e-08	0	-0.091000006	0	0
0	-0.9918205	3.6889105e-08	0	-0.09	0	0
0	-0.9917539	3.5164703e-08	0	-0.088999994	0	0
0	-0.9916865	2.9271177e-08	0	-0.088	0	0
0	-0.9916187	2.8783688e-08	0	-0.087000005	0	0
0	-0.9915501	3.02025e-08	0	-0.08600001	0	0
0	-0.991481	2.9991497e-08	0	-0.08499999	0	0
0	-0.99141115	2.6571797e-08	0	-0.084	0	0
0	-0.99134076	2.7961505e-08	0	-0.083	0	0
0	-0.9912696	2.8747309e-08	0	-0.08200001	0	0
0	-0.9911979	2.8434442e-08	0	-0.081	0	0
0	-0.99112546	3.252353e-08	0	-0.07999999	0	0
0	-0.9910524	3.151945e-08	0	-0.079	0	0
0	-0.9909788	3.243622e-08	0	-0.078	0	0
0	-0.9909043	3.3825927e-08	0	-0.077	0	0
0	-0.9908292	3.2261596e-08	0	-0.076	0	0
0	-0.9907534	3.540481e-08	0	-0.074999996	0	0
0	-0.990677	3.835885e-08	0	-0.074	0	0
0	-0.9905999	3.9515726e-08	0	-0.07300001	0	0
0	-0.99052197	4.5496563e-08	0	-0.072	0	0
0	-0.99044335	4.8748916e-08	0	-0.071	0	0
0	-0.9903641	5.5064447e-08	0	-0.07	0	0
0	-0.9902841	5.625043e-08	0	-0.069	0	0
0	-0.9902034	6.1547325e-08	0	-0.06800001	0	0
0	-0.99012184	6.835762e-08	0	-0.067	0	0
0	-0.99003965	7.265044e-08	0	-0.06599999	0	0
0	-0.98995674	8.08941e-08	0	-0.065	0	0
0	-0.98987293	8.562347e-08	0	-0.064	0	0
0	-0.9897885	9.829819e-08	0	-0.063	0	0
0	-0.98970324	1.10092515e-07	0	-0.062000003	0	0
0	-0.98961717	1.1656084e-07	0	-0.060999997	0	0
0	-0.9895303	1.3857789e-07	0	-0.06	0	0
0	-0.98944277	1.5290425e-07	0	-0.059000008	0	0
0	-0.9893543	1.774606e-07	0	-0.058	0	0
0	-0.9892651	1.9816798e-07	0	-0.057000004	0	0
0	-0.989175	2.2930908e-07	0	-0.055999998	0	0
0	-0.98908406	2.7038914e-07	0	-0.055000003	0	0
0	-0.98899245	3.157329e-07	0	-0.053999998	0	0
0	-0.98889995	3.7671998e-07	0	-0.053	0	0
0	-0.9888066	4.5033812e-07	0	-0.051999994	0	0
0	-0.9887123	5.367183e-07	0	-0.051	0	0
0	-0.98861724	6.5281347e-07	0	-0.050000004	0	0
0	-0.9885214	7.881026e-07	0	-0.049	0	0
0	-0.9884246	9.591313e-07	0	-0.048000004	0	0
0	-0.9883268	1.2094242e-06	0	-0.046999995	0	0
0	-0.9882282	1.514185e-06	0	-0.046	0	0
0	-0.98812866	1.884473e-06	0	-0.045	0	0
0	-0.9880283	2.3690518e-06	0	-0.044	0	0
0	-0.9879269	3.0419906e-06	0	-0.043000005	0	0
0	-0.9878246	3.999143e-06	0	-0.042	0	0
0	-0.98772144	5.358219e-06	0	-0.041000005	0	0
0	-0.97958374	0.047893144	0	-0.039999995	0	0
0	-0.9791886	0.048710633	0	-0.039	0	0
0	-0.97878826	0.04952529	0	-0.038	0	0
0	-0.978384	0.050332896	0	-0.037	0	0
0	-0.97797585	0.051134363	0	-0.036	0	0
0	-0.97756404	0.051929	0	-0.035	0	0
0	-0.97714806	0.05271857	0	-0.034000006	0	0
0	-0.9767282	0.053502463	0	-0.032999996	0	0
0	-0.9763038	0.054282464	0	-0.032	0	0
0	-0.9758754	0.055057783	0	-0.031000001	0	0
0	-0.9754421	0.05583012	0	-0.03	0	0
0	-0.97500473	0.056598537	0	-0.029	0	0
0	-0.9745623	0.057364434	0	-0.027999999	0	0
0	-0.9741149	0.05812835	0	-0.026999999	0	0
0	-0.9736628	0.05888997	0	-0.025999997	0	0
0	-0.97320557	0.059649516	0	-0.025000002	0	0
0	-0.9727431	0.060407758	0	-0.024000002	0	0
0	-0.9722751	0.061165445	0	-0.023	0	0
0	-0.97180176	0.0619218	0	-0.022	0	0
0	-0.97132266	0.062678106	0	-0.021	0	0
0	-0.9708377	0.063434325	0	-0.019999998	0	0
0	-0.9703467	0.06419068	0	-0.019	0	0
0	-0.9698497	0.06494727	0	-0.018	0	0
0	-0.96934634	0.06570468	0	-0.017000003	0	0
0	-0.96883655	0.06646297	0	-0.016	0	0
0	-0.96832	0.067222714	0	-0.015	0	0
0	-0.96779644	0.06798448	0	-0.0139999995	0	0
0	-0.96726644	0.06874688	0	-0.012999998	0	0
0	-0.96672887	0.06951198	0	-0.012000001	0	0
0	-0.96618396	0.070279226	0	-0.011	0	0
0	-0.9656315	0.07104905	0	-0.009999999	0	0
0	-0.9650712	0.07182163	0	-0.009	0	0
0	-0.96450293	0.072597116	0	-0.008	0	0
0	-0.96392626	0.073376104	0	-0.0069999998	0	0
0	-0.96334124	0.074158326	0	-0.0060000005	0	0
0	-0.9627475	0.07494456	0	-0.0049999994	0	0
0	-0.9621449	0.07573454	0	-0.004	0	0
0	-0.961533	0.076529175	0	-0.0030000003	0	0
0	-0.9609117	0.07732789	0	-0.002	0	0
0	-0.96028054	0.07813173	0	-0.001	0	0
0	-0.95963943	0.07894028	0	7.632783e-17	0	0
0	-0.9589882	0.07975422	0	0.001	0	0
0	-0.95832604	0.08057384	0	0.002	0	0
0	-0.95765305	0.081399314	0	0.0030000003	0	0
0	-0.956969	0.08223052	0	0.004	0	0
0	-0.9562731	0.08306841	0	0.0049999994	0	0
0	-0.9555653	0.08391324	0	0.0060000005	0	0
0	-0.9548451	0.08476463	0	0.0069999998	0	0
0	-0.95411235	0.08562323	0	0.008	0	0
0	-0.9533665	0.086489305	0	0.009	0	0
0	-0.9526069	0.087363735	0	0.009999999	0	0
0	-0.9518335	0.08824606	0	0.011	0	0
0	-0.95104563	0.08913698	0	0.012000001	0	0
0	-0.9502427	0.09003697	0	0.012999998	0	0
0	-0.94942486	0.09094589	0	0.0139999995	0	0
0	-0.9485906	0.09186461	0	0.015	0	0
0	-0.94774014	0.09279308	0	0.016	0	0
0	-0.9468724	0.093732536	0	0.017000003	0	0
0	-0.9459873	0.09468224	0	0.018	0	0
0	-0.94508386	0.09564333	0	0.019	0	0
0	-0.9441616	0.096616	0	0.019999998	0	0
0	-0.9432194	0.097601265	0	0.021	0	0
0	-0.9422572	0.09859877	0	0.022	0	0
0	-0.9412739	0.09960948	0	0.023	0	0
0	-0.9402684	0.10063417	0	0.024000002	0	0
0	-0.9392404	0.1016728	0	0.025000002	0	0
0	-0.9381888	0.10272613	0	0.025999997	0	0
0	-0.93711233	0.103795215	0	0.026999999	0	0
0	-0.9360103	0.10488061	0	0.027999999	0	0
0	-0.9348819	0.10598209	0	0.029	0	0
0	-0.9337251	0.107102096	0	0.03	0	0
0	-0.9325401	0.10823919	0	0.031000001	0	0
0	-0.93132436	0.109396115	0	0.032	0	0
0	-0.9300771	0.11057274	0	0.032999996	0	0
0	-0.9287967	0.11177035	0	0.034000006	0	0
0	-0.9274821	0.11298937	0	0.035	0	0
0	-0.9261311	0.114231445	0	0.036	0	0
0	-0.9247423	0.11549719	0	0.037	0	0
0	-0.9233137	0.11678819	0	0.038	0	0
0	-0.9218433	0.11810528	0	0.039	0	0
0	-0.9203292	0.11944994	0	0.039999995	0	0
0	-0.9187685	0.120823935	0	0.041000005	0	0
0	-0.91715914	0.12222868	0	0.042	0	0
0	-0.91549826	0.12366564	0	0.043000005	0	0
0	-0.9137835	0.12513629	0	0.044	0	0
0	-0.9120112	0.12664275	0	0.045	0	0
0	-0.910178	0.12818757	0	0.046	0	0
0	-0.9082798	0.12977315	0	0.046999995	0	0
0	-0.9063133	0.13140105	0	0.048000004	0	0
0	-0.90427345	0.133075	0	0.049	0	0
0	-0.9021558	0.13479717	0	0.050000004	0	0
0	-0.89995444	0.13657154	0	0.051	0	0
0	-0.89766324	0.13840201	0	0.051999994	0	0
0	-0.8952769	0.14029078	0	0.053	0	0
0	-0.8927864	0.14224474	0	0.053999998	0	0
0	-0.8901849	0.1442668	0	0.055000003	0	0
0	-0.8874618	0.1463643	0	0.055999998	0	0
0	-0.88460684	0.14854342	0	0.057000004	0	0
0	-0.8816091	0.15081012	0	0.058	0	0
0	-0.87845397	0.1531739	0	0.059000008	0	0
0	-0.8751251	0.15564473	0	0.06	0	0
0	-0.87160635	0.15823148	0	0.060999997	0	0
0	-0.8678752	0.16094825	0	0.062000003	0	0
0	-0.86390495	0.16381182	0	0.063	0	0
0	-0.8596686	0.16683695	0	0.064	0	0
0	-0.85512763	0.17004757	0	0.065	0	0
0	-0.85023814	0.17346986	0	0.06599999	0	0
0	-0.8449438	0.17713742	0	0.067	0	0
0	-0.8391744	0.18109152	0	0.06800001	0	0
0	-0.8328351	0.18538913	0	0.069	0	0
0	-0.82580936	0.19009516	0	0.07	0	0
0	-0.8179131	0.19532093	0	0.071	0	0
0	-0.80889356	0.20121086	0	0.072	0	0
0	-0.7983444	0.207997	0	0.07300001	0	0
0	-0.78556454	0.21606927	0	0.074	0	0
0	-0.769062	0.22624162	0	0.074999996	0	0
0	-0.74371964	0.24118683	0	0.076	0	0
0	0.9909042	2.9685682e-05	0	0.077	0	0
0	0.9909787	2.436489e-05	0	0.078	0	0
0	0.9910523	1.9944957e-05	0	0.079	0	0
0	0.9911254	1.6192178e-05	0	0.07999999	0	0
0	0.9911978	1.3914199e-05	0	0.081	0	0
0	0.99126947	1.1897653e-05	0	0.08200001	0	0
0	0.99134064	9.898002e-06	0	0.083	0	0
0	0.991411	8.354007e-06	0	0.084	0	0
0	0.99148077	7.030256e-06	0	0.08499999	0	0
0	0.99155	5.9154627e-06	0	0.08600001	0	0
0	0.9916185	4.942929e-06	0	0.087000005	0	0
0	0.99168646	4.124391e-06	0	0.088	0	0
0	0.9917537	3.39705e-06	0	0.088999994	0	0
0	0.9918204	2.7931674e-06	0	0.09	0	0
0	0.99188656	2.2333115e-06	0	0.091000006	0	0
0	0.99195194	1.7784041e-06	0	0.092	0	0
0	0.99201685	1.4168545e-06	0	0.093	0	0
0	0.99208117	1.0871809e-06	0	0.09399999	0	0
0	0.9921448	8.3094346e-07	0	0.095	0	0
0	0.99220794	6.50929e-07	0	0.09600001	0	0
0	0.99227047	4.7572394e-07	0	0.097	0	0
0	0.99233246	3.6336132e-07	0	0.098	0	0
0	0.99239385	2.7070928e-07	0	0.09899999	0	0
