//mumax 3.10 [windows_amd64 go1.11.6(gc) CUDA-11.0]
//GPU info: NVIDIA GeForce RTX 4070 Ti SUPER(16375MB), CUDA Driver 12.4, cc=8.9, using cc=80 PTX
//(c) Arne Vansteenkiste, Dynamat LAB, Ghent University, Belgium
//This is free software without any warranty. See license.txt
//********************************************************************//
//  If you use mumax in any work or publication,                      //
//  we kindly ask you to cite the references in references.bib        //
//********************************************************************//
//output directory: Hysteresis_Loop_001.out/
Nx := 64
Ny := 64
Nz := 3
Cx := 3.0e-9
Cy := 3.0e-9
Cz := 3.0e-9
setgridsize(Nx, Ny, Nz)
setcellsize(Cx, Cy, Cz)
setgeom(universe())
setPBC(0, 0, 1)
//resizing...
DefRegion(0, Layer(0))
DefRegion(1, Layer(1))
DefRegion(2, Layer(2))
A_FM := 1.3e-11
M_FM := 800e3
Aex.setRegion(2, A_FM)
Msat.setRegion(2, M_FM)
NoDemagSpins.SetRegion(2, 1)
m.setRegion(2, uniform(1, 0, 0))
t_AFM := Cz
M_AFM := M_FM
K_AFM := 7.0e5
J_I := 0.7e-3
delta := 1.0e6
A_AFM := -delta * t_AFM * Cz / 2
A_A := -A_AFM
for i := 0; i < 2; i++ {
	NoDemagSpins.SetRegion(i, 1)
	Aex.setRegion(i, A_A)
	Msat.setRegion(i, M_AFM)
	m.setRegion(i, uniform(0.1, pow(-1, i), 0))
	Ku1.setregion(i, K_AFM)
	anisU.setregion(i, vector(0, 1, 0))
}
alpha_H := (2 / M_FM) * (1 / (1/A_FM + 1/A_A))
ext_ScaleExchange(1, 2, J_I*Cz/(2*M_FM*alpha_H))
ext_ScaleExchange(0, 2, J_I*Cz/(2*M_FM*alpha_H))
ext_ScaleExchange(0, 1, A_AFM/A_A)
relax()
save(m)
B_app := 0.0
TableAddVar(B_app, "B_app", "T")
TableAdd(m.Region(2))
for i := 80; i > -81; i-- {
	B_app = i * 1e-3
	B_ext.setregion(2, vector(B_app*cos(1.0*pi/180), B_app*sin(1.0*pi/180), 0))
	tablesave()
	relax()
}
for i := -79; i < 81; i++ {
	B_app = i * 1e-3
	B_ext.setregion(2, vector(B_app*cos(1.0*pi/180), B_app*sin(1.0*pi/180), 0))
	tablesave()
	relax()
}
//********************************************************************//
//Please cite the following references, relevant for your simulation. //
//See bibtex file in output folder for justification.                 //
//********************************************************************//
//   * Vansteenkiste et al., AIP Adv. 4, 107133 (2014).
