# t (s)	mx ()	my ()	mz ()	B_app (T)	m.region2x ()	m.region2y ()	m.region2z ()
0	0.37908494	-9.771241e-09	0	0.08	1	3.0290924e-08	0
0	0.3790592	0.003898285	0	0.079	0.9999318	0.011676616	0
0	0.37905943	0.0038821297	0	0.078	0.99993235	0.01162821	0
0	0.37905964	0.0038655398	0	0.077	0.9999329	0.011578559	0
0	0.37905982	0.003848811	0	0.076	0.9999336	0.011528373	0
0	0.37906012	0.0038316448	0	0.075	0.9999342	0.011476994	0
0	0.3790603	0.0038142996	0	0.074	0.99993473	0.011424958	0
0	0.37906054	0.0037965474	0	0.073	0.99993527	0.01137182	0
0	0.37906078	0.003778547	0	0.072	0.99993604	0.011317879	0
0	0.379061	0.0037601788	0	0.071	0.99993664	0.011262834	0
0	0.37906122	0.0037413435	0	0.07	0.9999372	0.011206566	0
0	0.37906143	0.0037223995	0	0.069	0.9999379	0.011149734	0
0	0.37906173	0.0037030773	0	0.068	0.99993855	0.011091768	0
0	0.37906197	0.0036832371	0	0.067	0.9999391	0.011032485	0
0	0.3790622	0.0036631592	0	0.066	0.99993986	0.010972312	0
0	0.37906244	0.0036426382	0	0.065	0.99994045	0.010910868	0
0	0.37906268	0.0036218138	0	0.064	0.99994123	0.010848454	0
0	0.379063	0.0036005378	0	0.063	0.9999419	0.010784686	0
0	0.37906328	0.0035788587	0	0.062	0.99994266	0.010719768	0
0	0.37906358	0.003556569	0	0.061	0.9999433	0.010653137	0
0	0.3790638	0.0035341086	0	0.06	0.9999441	0.010585756	0
0	0.37906408	0.0035110798	0	0.059	0.99994475	0.010516789	0
0	0.37906435	0.0034876468	0	0.058	0.9999455	0.01044649	0
0	0.3790646	0.003463586	0	0.057	0.9999462	0.010374486	0
0	0.37906492	0.0034391852	0	0.056	0.999947	0.010301403	0
0	0.3790652	0.0034141142	0	0.055	0.99994767	0.010226309	0
0	0.3790655	0.0033886132	0	0.054	0.99994856	0.010149925	0
0	0.37906578	0.003362664	0	0.053	0.99994934	0.010072197	0
0	0.3790661	0.003336032	0	0.052	0.99995005	0.00999242	0
0	0.37906644	0.0033087286	0	0.051	0.99995095	0.009910689	0
0	0.37906674	0.0032810362	0	0.05	0.9999518	0.009827671	0
0	0.37906706	0.0032525456	0	0.049	0.9999527	0.009742378	0
0	0.3790674	0.0032234667	0	0.048	0.9999534	0.00965532	0
0	0.3790677	0.0031937642	0	0.047	0.9999542	0.009566332	0
0	0.37906802	0.003163358	0	0.046	0.9999552	0.009475232	0
0	0.37906834	0.0031322537	0	0.045	0.9999561	0.009382038	0
0	0.3790687	0.0031003356	0	0.044	0.99995697	0.009286463	0
0	0.37906906	0.0030675912	0	0.043	0.9999579	0.009188469	0
0	0.37906936	0.0030343486	0	0.042	0.9999589	0.0090888	0
0	0.3790697	0.0030001777	0	0.041	0.9999598	0.008986407	0
0	0.37907007	0.0029649734	0	0.04	0.99996054	0.008880973	0
0	0.37907043	0.002929121	0	0.039	0.9999615	0.008773535	0
0	0.3790708	0.0028922549	0	0.038	0.99996245	0.008663115	0
0	0.3790712	0.0028542653	0	0.037	0.9999634	0.008549444	0
0	0.37907156	0.002815543	0	0.036	0.9999646	0.008433397	0
0	0.37907192	0.0027756265	0	0.035	0.99996555	0.008313886	0
0	0.3790723	0.00273484	0	0.034	0.99996656	0.008191645	0
0	0.37907267	0.0026927674	0	0.033	0.9999675	0.008065666	0
0	0.3790731	0.002649486	0	0.032	0.9999685	0.00793606	0
0	0.37907347	0.0026050608	0	0.031	0.99996954	0.007803023	0
0	0.37907383	0.0025594581	0	0.03	0.99997056	0.007666394	0
0	0.37907425	0.00251251	0	0.029	0.99997175	0.007525728	0
0	0.3790747	0.0024643338	0	0.028	0.99997276	0.0073813787	0
0	0.37907508	0.002414326	0	0.027	0.99997383	0.0072317123	0
0	0.37907553	0.0023630557	0	0.026	0.9999751	0.0070781405	0
0	0.37907597	0.002310256	0	0.025	0.9999761	0.0069199796	0
0	0.37907633	0.0022559713	0	0.024	0.9999772	0.006757304	0
0	0.37907675	0.0021997392	0	0.023	0.9999782	0.006588906	0
0	0.37907723	0.0021418394	0	0.022	0.9999795	0.0064155045	0
0	0.37907764	0.002081839	0	0.021	0.99998057	0.006235801	0
0	0.37907806	0.0020200433	0	0.02	0.99998176	0.0060507124	0
0	0.3790785	0.0019562047	0	0.019	0.9999829	0.0058594947	0
0	0.3790789	0.0018902966	0	0.018	0.9999839	0.005661949	0
0	0.37907934	0.0018217441	0	0.017	0.99998516	0.0054567684	0
0	0.3790798	0.0017511789	0	0.016	0.99998623	0.005245311	0
0	0.37908018	0.0016776347	0	0.015	0.9999875	0.005025036	0
0	0.37908065	0.0016016248	0	0.014	0.99998856	0.004797364	0
0	0.37908104	0.0015228743	0	0.013	0.99998957	0.0045614704	0
0	0.37908146	0.0014411132	0	0.012	0.9999906	0.004316485	0
0	0.37908188	0.0013559144	0	0.011	0.99999183	0.0040614847	0
0	0.37908232	0.0012675972	0	0.01	0.99999285	0.0037967716	0
0	0.37908265	0.0011754264	0	0.009	0.99999386	0.0035207956	0
0	0.379083	0.0010799273	0	0.008	0.99999475	0.0032348349	0
0	0.37908337	0.000979924	0	0.007	0.9999957	0.0029351825	0
0	0.37908366	0.00087599526	0	0.006	0.9999966	0.002623873	0
0	0.379084	0.00076761964	0	0.005	0.99999726	0.0022993423	0
0	0.37908423	0.00065399933	0	0.004	0.9999981	0.0019590177	0
0	0.37908456	0.0005352857	0	0.003	0.9999989	0.0016033537	0
0	0.3790847	0.00041078788	0	0.002	0.99999917	0.0012304563	0
0	0.37908486	0.00028081547	0	0.001	0.9999996	0.0008410755	0
0	0.37908494	0.00014411667	0	0	1	0.00043169435	0
0	0.37908494	1.8680946e-07	0	-0.001	1	5.6042836e-07	0
0	0.37908494	-0.00014992221	0	-0.002	1	-0.00044905138	0
0	0.37908486	-0.00030973007	0	-0.003	0.9999996	-0.0009277597	0
0	0.3790846	-0.0004769054	0	-0.004	0.99999905	-0.0014285705	0
0	0.37908423	-0.0006544677	0	-0.005	0.9999981	-0.0019603632	0
0	0.37908378	-0.00084177434	0	-0.006	0.999997	-0.0025214488	0
0	0.37908316	-0.0010406763	0	-0.007	0.9999952	-0.0031171413	0
0	0.37908232	-0.0012512351	0	-0.008	0.99999297	-0.0037478642	0
0	0.37908128	-0.0014753017	0	-0.009	0.99999034	-0.0044190506	0
0	0.37908003	-0.0017139689	0	-0.01	0.99998677	-0.0051338603	0
0	0.3790784	-0.0019687384	0	-0.011	0.9999827	-0.0058969166	0
0	0.37907645	-0.0022418918	0	-0.012	0.9999775	-0.0067151254	0
0	0.3790741	-0.002533623	0	-0.013	0.99997133	-0.0075890673	0
0	0.37907124	-0.0028482846	0	-0.014	0.9999637	-0.008531562	0
0	0.37906775	-0.0031863165	0	-0.015	0.99995434	-0.009543929	0
0	0.37906358	-0.0035541707	0	-0.016	0.9999434	-0.010645763	0
0	0.3790585	-0.003950738	0	-0.017	0.99993	-0.0118336165	0
0	0.37905243	-0.0043815277	0	-0.018	0.99991405	-0.0131239	0
0	0.37904498	-0.004855719	0	-0.019	0.9998942	-0.014544329	0
0	0.37903595	-0.0053771627	0	-0.02	0.99987036	-0.016106335	0
0	0.37902498	-0.005947167	0	-0.021	0.9998413	-0.017813547	0
0	0.3790115	-0.0065824	0	-0.022	0.99980557	-0.019716324	0
0	0.37899494	-0.0072874464	0	-0.023	0.9997617	-0.021828126	0
0	0.37897432	-0.008075896	0	-0.024	0.99970734	-0.024189718	0
0	0.37894857	-0.008967956	0	-0.025	0.99963915	-0.026861725	0
0	0.3789158	-0.009986814	0	-0.026	0.9995526	-0.029913593	0
0	0.37887418	-0.011147052	0	-0.027	0.9994425	-0.033388823	0
0	0.37881973	-0.012503851	0	-0.028	0.99929845	-0.037452903	0
0	0.37874797	-0.014093318	0	-0.029	0.99910873	-0.042213853	0
0	0.3786516	-0.015982132	0	-0.03	0.99885356	-0.047871534	0
0	0.37851715	-0.018291978	0	-0.031	0.99849796	-0.054790344	0
0	0.37832582	-0.021146692	0	-0.032	0.997992	-0.06334125	0
0	0.37803933	-0.0248143	0	-0.033	0.9972339	-0.07432703	0
0	0.37758794	-0.02968107	0	-0.034	0.9960402	-0.088904984	0
0	0.3767996	-0.03665245	0	-0.035	0.9939551	-0.10978742	0
0	0.37518856	-0.047806755	0	-0.036	0.9896937	-0.14320038	0
0	0.36937043	-0.07518893	0	-0.037	0.9743053	-0.2252314	0
0	0.36802575	-0.08015228	0	-0.038	0.9707478	-0.24010204	0
0	0.36477697	-0.09096765	0	-0.039	0.96215355	-0.2725074	0
0	-0.37907076	-0.0028922558	0	-0.04	-0.9999624	-0.008663118	0
0	-0.3790704	-0.002928893	0	-0.041	-0.99996144	-0.008772911	0
0	-0.37907	-0.0029648645	0	-0.042	-0.9999605	-0.008880706	0
0	-0.3790697	-0.0030000412	0	-0.043	-0.9999598	-0.008986057	0
0	-0.37906936	-0.0030343232	0	-0.044	-0.9999589	-0.009088664	0
0	-0.379069	-0.0030676818	0	-0.045	-0.9999579	-0.009188621	0
0	-0.3790687	-0.0031002564	0	-0.046	-0.99995697	-0.009286226	0
0	-0.37906837	-0.0031320946	0	-0.047	-0.9999561	-0.009381621	0
0	-0.37906802	-0.0031633573	0	-0.048	-0.9999551	-0.009475171	0
0	-0.3790677	-0.0031937165	0	-0.049	-0.9999543	-0.009566189	0
0	-0.3790674	-0.003223382	0	-0.05	-0.9999534	-0.009655006	0
0	-0.37906706	-0.0032523896	0	-0.051	-0.9999527	-0.009741969	0
0	-0.37906674	-0.003280958	0	-0.052	-0.9999518	-0.009827436	0
0	-0.37906644	-0.0033086438	0	-0.053	-0.9999509	-0.0099104345	0
0	-0.3790661	-0.0033357742	0	-0.054	-0.99995005	-0.009991766	0
0	-0.37906584	-0.0033625364	0	-0.055	-0.9999494	-0.010071874	0
0	-0.3790655	-0.0033885045	0	-0.056	-0.9999485	-0.010149718	0
0	-0.37906525	-0.0034141047	0	-0.057	-0.99994767	-0.01022628	0
0	-0.37906492	-0.0034390886	0	-0.058	-0.999947	-0.010301173	0
0	-0.3790646	-0.0034634972	0	-0.059	-0.9999462	-0.010374279	0
0	-0.37906435	-0.0034874773	0	-0.06	-0.9999455	-0.0104461005	0
0	-0.37906408	-0.0035110542	0	-0.061	-0.99994475	-0.010516652	0
0	-0.37906376	-0.003534029	0	-0.062	-0.99994385	-0.010585517	0
0	-0.37906358	-0.0035565493	0	-0.063	-0.99994326	-0.010653018	0
0	-0.37906325	-0.0035787625	0	-0.064	-0.99994266	-0.010719539	0
0	-0.379063	-0.0036004297	0	-0.065	-0.9999419	-0.010784421	0
0	-0.37906268	-0.0036217275	0	-0.066	-0.9999413	-0.010848195	0
0	-0.37906244	-0.0036425602	0	-0.067	-0.99994045	-0.010910634	0
0	-0.3790622	-0.0036630433	0	-0.068	-0.99993986	-0.010972023	0
0	-0.37906197	-0.0036832802	0	-0.069	-0.9999391	-0.011032496	0
0	-0.37906173	-0.0037029982	0	-0.07	-0.99993855	-0.0110916495	0
0	-0.3790615	-0.0037223494	0	-0.071	-0.99993795	-0.011149644	0
0	-0.37906122	-0.003741404	0	-0.072	-0.9999372	-0.011206629	0
0	-0.379061	-0.0037600799	0	-0.073	-0.9999366	-0.011262597	0
0	-0.37906075	-0.003778388	0	-0.074	-0.99993604	-0.011317462	0
0	-0.37906054	-0.003796419	0	-0.075	-0.99993527	-0.011371554	0
0	-0.3790603	-0.0038141839	0	-0.076	-0.99993473	-0.01142467	0
0	-0.37906006	-0.0038315551	0	-0.077	-0.99993414	-0.011476784	0
0	-0.37905982	-0.0038488016	0	-0.078	-0.99993366	-0.011528285	0
0	-0.37905964	-0.003865572	0	-0.079	-0.9999331	-0.011578537	0
0	-0.37905943	-0.0038820815	0	-0.08	-0.99993235	-0.011628006	0
0	-0.3790592	-0.0038984318	0	-0.079	-0.9999318	-0.011676937	0
0	-0.37905943	-0.00388211	0	-0.078	-0.99993235	-0.01162815	0
0	-0.37905967	-0.0038655999	0	-0.077	-0.9999331	-0.01157868	0
0	-0.37905982	-0.0038488312	0	-0.076	-0.9999336	-0.011528374	0
0	-0.37906012	-0.003831615	0	-0.075	-0.9999342	-0.011476904	0
0	-0.3790603	-0.0038141606	0	-0.074	-0.99993473	-0.01142466	0
0	-0.37906048	-0.003796419	0	-0.073	-0.99993527	-0.011371554	0
0	-0.37906075	-0.003778448	0	-0.072	-0.99993604	-0.011317701	0
0	-0.379061	-0.0037602084	0	-0.071	-0.9999366	-0.011262923	0
0	-0.37906122	-0.003741341	0	-0.07	-0.9999372	-0.011206559	0
0	-0.37906143	-0.003722409	0	-0.069	-0.9999379	-0.011149763	0
0	-0.3790617	-0.003702998	0	-0.068	-0.9999385	-0.011091589	0
0	-0.37906197	-0.003683378	0	-0.067	-0.9999391	-0.011032789	0
0	-0.3790622	-0.003663073	0	-0.066	-0.99993986	-0.010972112	0
0	-0.3790625	-0.0036426382	0	-0.065	-0.9999405	-0.010910808	0
0	-0.37906268	-0.0036217866	0	-0.064	-0.9999413	-0.010848372	0
0	-0.379063	-0.0036004372	0	-0.063	-0.9999419	-0.010784503	0
0	-0.37906325	-0.0035787227	0	-0.062	-0.99994266	-0.010719479	0
0	-0.37906358	-0.003556569	0	-0.061	-0.99994326	-0.010653137	0
0	-0.3790638	-0.0035340388	0	-0.06	-0.99994385	-0.010585606	0
0	-0.37906408	-0.0035111404	0	-0.059	-0.99994475	-0.010516851	0
0	-0.37906435	-0.003487577	0	-0.058	-0.9999456	-0.010446399	0
0	-0.3790646	-0.0034636853	0	-0.057	-0.9999462	-0.010374784	0
0	-0.37906492	-0.0034391189	0	-0.056	-0.999947	-0.010301263	0
0	-0.37906525	-0.0034142036	0	-0.055	-0.99994767	-0.0102265775	0
0	-0.3790655	-0.0033886826	0	-0.054	-0.9999485	-0.010150134	0
0	-0.37906584	-0.0033625362	0	-0.053	-0.9999494	-0.010071813	0
0	-0.3790661	-0.003335992	0	-0.052	-0.99995	-0.0099923005	0
0	-0.37906644	-0.0033088224	0	-0.051	-0.9999509	-0.00991091	0
0	-0.37906674	-0.0032809342	0	-0.05	-0.9999518	-0.009827425	0
0	-0.37906706	-0.0032524653	0	-0.049	-0.9999527	-0.009742197	0
0	-0.3790674	-0.003223494	0	-0.048	-0.9999533	-0.009655342	0
0	-0.3790677	-0.0031937556	0	-0.047	-0.9999542	-0.009566306	0
0	-0.37906802	-0.0031633961	0	-0.046	-0.9999552	-0.009475347	0
0	-0.37906834	-0.0031323337	0	-0.045	-0.9999561	-0.009382219	0
0	-0.3790687	-0.0031003656	0	-0.044	-0.999957	-0.009286554	0
0	-0.37906906	-0.003067712	0	-0.043	-0.9999579	-0.009188771	0
0	-0.37906936	-0.0030342937	0	-0.042	-0.99995863	-0.009088635	0
0	-0.3790697	-0.0030000599	0	-0.041	-0.9999596	-0.008986113	0
0	-0.37907007	-0.0029650033	0	-0.04	-0.99996054	-0.008881062	0
0	-0.37907043	-0.0029290018	0	-0.039	-0.99996173	-0.008773237	0
0	-0.3790708	-0.0028921936	0	-0.038	-0.9999627	-0.008662991	0
0	-0.3790712	-0.0028542674	0	-0.037	-0.99996364	-0.008549451	0
0	-0.37907156	-0.0028154834	0	-0.036	-0.9999646	-0.008433278	0
0	-0.37907192	-0.002775627	0	-0.035	-0.99996555	-0.008313887	0
0	-0.3790723	-0.0027347403	0	-0.034	-0.99996656	-0.008191346	0
0	-0.37907267	-0.0026927283	0	-0.033	-0.9999675	-0.008065549	0
0	-0.3790731	-0.002649585	0	-0.032	-0.9999686	-0.007936238	0
0	-0.37907347	-0.0026050608	0	-0.031	-0.99996954	-0.0078030224	0
0	-0.37907383	-0.0025593215	0	-0.03	-0.99997056	-0.0076660435	0
0	-0.3790743	-0.0025125642	0	-0.029	-0.9999718	-0.0075258906	0
0	-0.3790747	-0.0024642048	0	-0.028	-0.99997276	-0.007381051	0
0	-0.37907508	-0.0024144647	0	-0.027	-0.99997383	-0.0072320695	0
0	-0.3790755	-0.002363194	0	-0.026	-0.9999751	-0.007078496	0
0	-0.37907597	-0.0023103643	0	-0.025	-0.9999761	-0.006920245	0
0	-0.37907633	-0.002255956	0	-0.024	-0.9999772	-0.0067572584	0
0	-0.3790768	-0.0021998384	0	-0.023	-0.9999784	-0.0065890844	0
0	-0.37907723	-0.0021418424	0	-0.022	-0.9999795	-0.006415394	0
0	-0.37907764	-0.0020820773	0	-0.021	-0.9999805	-0.006236397	0
0	-0.37907806	-0.0020201541	0	-0.02	-0.9999818	-0.0060509853	0
0	-0.3790785	-0.0019562852	0	-0.019	-0.99998283	-0.005859736	0
0	-0.3790789	-0.001890272	0	-0.018	-0.9999839	-0.0056618755	0
0	-0.37907934	-0.0018218787	0	-0.017	-0.99998516	-0.005457053	0
0	-0.3790798	-0.0017511024	0	-0.016	-0.99998623	-0.005245141	0
0	-0.37908018	-0.0016776648	0	-0.015	-0.9999875	-0.0050251265	0
0	-0.37908065	-0.0016015238	0	-0.014	-0.99998856	-0.004797121	0
0	-0.37908104	-0.0015227495	0	-0.013	-0.99998957	-0.004561096	0
0	-0.37908146	-0.0014411908	0	-0.012	-0.9999908	-0.004316718	0
0	-0.37908185	-0.0013558319	0	-0.011	-0.99999183	-0.004061237	0
0	-0.37908223	-0.0012674526	0	-0.01	-0.9999928	-0.0037963972	0
0	-0.37908265	-0.0011755041	0	-0.009	-0.9999938	-0.0035210287	0
0	-0.379083	-0.001079799	0	-0.008	-0.9999948	-0.0032343308	0
0	-0.37908337	-0.0009798903	0	-0.007	-0.9999957	-0.0029350815	0
0	-0.37908366	-0.0008758481	0	-0.006	-0.99999666	-0.0026234912	0
0	-0.379084	-0.00076746434	0	-0.005	-0.99999726	-0.0022987572	0
0	-0.37908423	-0.0006540607	0	-0.004	-0.9999981	-0.0019592019	0
0	-0.37908456	-0.0005355095	0	-0.003	-0.9999989	-0.0016040251	0
0	-0.3790847	-0.00041113654	0	-0.002	-0.99999917	-0.0012315619	0
0	-0.37908486	-0.00028110694	0	-0.001	-0.9999996	-0.00084200955	0
0	-0.37908491	-0.00014397771	0	0	-0.99999994	-0.0004312775	0
0	-0.37908494	-4.074592e-07	0	0.001	-1	-1.2223776e-06	0
0	-0.37908494	0.00015010158	0	0.002	-1	0.0004496491	0
0	-0.37908486	0.0003092717	0	0.003	-0.9999996	0.00092626543	0
0	-0.3790846	0.00047738626	0	0.004	-0.99999905	0.0014299534	0
0	-0.37908426	0.0006539734	0	0.005	-0.9999981	0.0019588207	0
0	-0.37908378	0.00084199297	0	0.006	-0.999997	0.002522045	0
0	-0.37908316	0.0010405647	0	0.007	-0.9999952	0.0031168065	0
0	-0.37908232	0.0012511126	0	0.008	-0.99999297	0.0037474965	0
0	-0.37908128	0.0014750748	0	0.009	-0.99999034	0.00441837	0
0	-0.37908003	0.0017137019	0	0.01	-0.99998677	0.0051331185	0
0	-0.37907842	0.0019687798	0	0.011	-0.9999827	0.0058971005	0
0	-0.37907648	0.0022416299	0	0.012	-0.9999775	0.006714399	0
0	-0.3790741	0.00253399	0	0.013	-0.99997133	0.0075901086	0
0	-0.37907124	0.0028480159	0	0.014	-0.9999637	0.0085307555	0
0	-0.37906775	0.0031879616	0	0.015	-0.99995434	0.009548924	0
0	-0.3790636	0.0035540315	0	0.016	-0.9999434	0.010645465	0
0	-0.3790585	0.0039516906	0	0.017	-0.99992996	0.011836535	0
0	-0.37905243	0.0043819915	0	0.018	-0.99991405	0.013125292	0
0	-0.37904504	0.00485393	0	0.019	-0.99989426	0.014538901	0
0	-0.37903595	0.005377738	0	0.02	-0.9998703	0.016108	0
0	-0.379025	0.0059469077	0	0.021	-0.99984133	0.017812708	0
0	-0.3790115	0.006582175	0	0.022	-0.99980557	0.01971571	0
0	-0.37899494	0.0072863162	0	0.023	-0.9997617	0.021824736	0
0	-0.37897423	0.008080508	0	0.024	-0.9997071	0.024203673	0
0	-0.37894842	0.008973016	0	0.025	-0.9996387	0.02687697	0
0	-0.37891594	0.009983166	0	0.026	-0.99955285	0.029902589	0
0	-0.37887385	0.011154541	0	0.027	-0.9994417	0.03341141	0
0	-0.3788196	0.012506034	0	0.028	-0.99929816	0.03745951	0
0	-0.37874794	0.014094046	0	0.029	-0.99910843	0.042216036	0
0	-0.37865114	0.01598982	0	0.03	-0.9988526	0.047894593	0
0	-0.37851664	0.01829969	0	0.031	-0.9984966	0.05481348	0
0	-0.37832567	0.021149209	0	0.032	-0.9979915	0.0633488	0
0	-0.37804052	0.024799727	0	0.033	-0.9972372	0.07428343	0
0	-0.37758783	0.02968219	0	0.034	-0.9960398	0.088908285	0
0	-0.37680018	0.036648598	0	0.035	-0.99395645	0.109775856	0
0	-0.37519658	0.047758117	0	0.036	-0.98971474	0.14305471	0
0	-0.3694671	0.07481853	0	0.037	-0.9745612	0.22412167	0
0	-0.3681164	0.07982779	0	0.038	-0.97098744	0.2391299	0
0	-0.3648214	0.09082914	0	0.039	-0.96227115	0.27209237	0
0	0.3790708	0.002892186	0	0.04	0.9999627	0.008662968	0
0	0.3790704	0.0029288924	0	0.041	0.99996144	0.008773028	0
0	0.37907	0.0029649644	0	0.042	0.9999605	0.008880946	0
0	0.3790697	0.0030000408	0	0.043	0.9999598	0.008986056	0
0	0.37906936	0.0030342343	0	0.044	0.99995863	0.009088458	0
0	0.379069	0.0030675652	0	0.045	0.9999579	0.009188331	0
0	0.3790687	0.0031002264	0	0.046	0.999957	0.009286135	0
0	0.37906837	0.0031322602	0	0.047	0.9999561	0.009381998	0
0	0.37906802	0.0031632485	0	0.048	0.9999551	0.009474904	0
0	0.3790677	0.0031936972	0	0.049	0.9999543	0.009566071	0
0	0.3790674	0.0032233319	0	0.05	0.9999533	0.009654916	0
0	0.37906706	0.0032524297	0	0.051	0.99995244	0.00974203	0
0	0.37906674	0.0032809677	0	0.052	0.9999518	0.009827466	0
0	0.37906644	0.0033085358	0	0.053	0.99995095	0.00991017	0
0	0.3790661	0.003335845	0	0.054	0.99995005	0.009991919	0
0	0.37906578	0.0033624573	0	0.055	0.99994934	0.010071696	0
0	0.3790655	0.003388489	0	0.056	0.99994856	0.010149612	0
0	0.3790652	0.0034140153	0	0.057	0.99994767	0.010226072	0
0	0.37906492	0.0034390984	0	0.058	0.999947	0.010301082	0
0	0.3790646	0.0034634871	0	0.059	0.9999462	0.010374249	0
0	0.37906435	0.0034875574	0	0.06	0.9999456	0.010446281	0
0	0.37906405	0.0035109718	0	0.061	0.9999447	0.010516465	0
0	0.3790638	0.003534029	0	0.062	0.99994385	0.010585457	0
0	0.37906358	0.0035566094	0	0.063	0.9999433	0.010653199	0
0	0.37906328	0.003578752	0	0.064	0.99994266	0.010719447	0
0	0.379063	0.0036004384	0	0.065	0.9999419	0.010784447	0
0	0.37906268	0.0036218169	0	0.066	0.99994123	0.010848404	0
0	0.3790625	0.0036426587	0	0.067	0.99994045	0.01091087	0
0	0.3790622	0.0036630833	0	0.068	0.99993986	0.010972084	0
0	0.37906197	0.0036831798	0	0.069	0.9999391	0.011032314	0
0	0.3790617	0.0037029488	0	0.07	0.9999385	0.011091501	0
0	0.37906143	0.0037223694	0	0.071	0.9999379	0.011149644	0
0	0.37906125	0.003741364	0	0.072	0.9999372	0.011206568	0
0	0.379061	0.0037600843	0	0.073	0.99993664	0.01126261	0
0	0.37906078	0.0037783785	0	0.074	0.99993604	0.011317492	0
0	0.37906048	0.0037965376	0	0.075	0.99993527	0.011371732	0
0	0.3790603	0.0038142006	0	0.076	0.99993473	0.01142472	0
0	0.37906012	0.0038316448	0	0.077	0.9999342	0.011476934	0
0	0.37905982	0.0038487613	0	0.078	0.9999336	0.011528164	0
0	0.37905964	0.0038655244	0	0.079	0.9999329	0.011578454	0
0	0.37905943	0.0038820708	0	0.08	0.99993235	0.011628033	0
